Material,C,H,O,N,F,S,System_Size,a,b,c,alpha,beta,gamma,density,PLD,LCD,N2_SA,Probe_Accessible,Probe_Occupiable,Rosenbluth_Weight,SMILES
1,2900,0,400,200,0,0,3500,43.8569,43.8569,43.8569,90,90,90,0.866787,3.86428,8.63063,901.86,0.124,0.29534,0.430821,CC1=C(C)C(C#N)=C(OC(C=C(C2(CC(C)(C)C3=C2C=C(OC)C(OC)=C3)CC4(C)C)C4=C5)=C5O6)C6=C1C#N
2,2900,0,400,200,0,0,3500,43.3482,43.3482,43.3482,90,90,90,0.897663,4.0249,7.74149,270.599,0.10962,0.2729,0.402154,CC1=C(C)C(C#N)=C(OC(C=C(C2(CC(C)(C)C3=C2C=C(OC)C(OC)=C3)CC4(C)C)C4=C5)=C5O6)C6=C1C#N
3,2900,0,400,200,0,0,3500,43.3097,43.3097,43.3097,90,90,90,0.900059,3.55554,7.3786,0,0.09612,0.24616,0.392034,CC1=C(C)C(C#N)=C(OC(C=C(C2(CC(C)(C)C3=C2C=C(OC)C(OC)=C3)CC4(C)C)C4=C5)=C5O6)C6=C1C#N
4,2900,0,400,200,0,0,3500,43.3654,43.3654,43.3654,90,90,90,0.896595,3.6534,9.1275,0,0.1108,0.26592,0.399608,CC1=C(C)C(C#N)=C(OC(C=C(C2(CC(C)(C)C3=C2C=C(OC)C(OC)=C3)CC4(C)C)C4=C5)=C5O6)C6=C1C#N
5,2900,0,400,200,0,0,3500,43.5965,43.5965,43.5965,90,90,90,0.882412,3.94698,8.51578,837.665,0.11012,0.20724,0.408698,CC1=C(C)C(C#N)=C(OC(C=C(C2(CC(C)(C)C3=C2C=C(OC)C(OC)=C3)CC4(C)C)C4=C5)=C5O6)C6=C1C#N
6,2900,200,800,0,0,0,3900,43.41212,43.41212,43.41212,90,90,90,0.970825,3.97908,7.50416,297.155,0.09026,0.22894,0.367604,OC(C1=C2C(OC(C=C(C3(CC(C)(C)C4=C3C=CC=C4)CC5(C)C)C5=C6)=C6O2)=C(C(O)=O)C(C)=C1C)=O
7,2900,200,800,0,0,0,3900,43.15783,43.15783,43.15783,90,90,90,0.988087,3.04247,7.33063,0,0.07396,0.21426,0.3524,OC(C1=C2C(OC(C=C(C3(CC(C)(C)C4=C3C=CC=C4)CC5(C)C)C5=C6)=C6O2)=C(C(O)=O)C(C)=C1C)=O
8,2900,200,800,0,0,0,3900,43.47607,43.47607,43.47607,90,90,90,0.966547,3.47295,7.42213,0,0.08536,0.23102,0.378214,OC(C1=C2C(OC(C=C(C3(CC(C)(C)C4=C3C=CC=C4)CC5(C)C)C5=C6)=C6O2)=C(C(O)=O)C(C)=C1C)=O
9,2900,200,800,0,0,0,3900,43.14379,43.14379,43.14379,90,90,90,0.989052,3.91016,7.12304,222.535,0.07408,0.21234,0.351514,OC(C1=C2C(OC(C=C(C3(CC(C)(C)C4=C3C=CC=C4)CC5(C)C)C5=C6)=C6O2)=C(C(O)=O)C(C)=C1C)=O
10,2900,200,800,0,0,0,3900,43.43317,43.43317,43.43317,90,90,90,0.969414,3.36087,8.30336,0,0.08254,0.22082,0.368464,OC(C1=C2C(OC(C=C(C3(CC(C)(C)C4=C3C=CC=C4)CC5(C)C)C5=C6)=C6O2)=C(C(O)=O)C(C)=C1C)=O
11,2100,0,200,0,0,0,2300,38.70508,38.70508,38.70508,90,90,90,0.81398,3.74966,9.54224,892.92,0.11556,0.28576,0.413585,CC(C1=C2C=CC=C1)(C)CC2(CC3(C)C)C(C3=C4)=CC5=C4OC6=CC=CC=C6O5
12,2100,0,200,0,0,0,2300,39.22906,39.22906,39.22906,90,90,90,0.781797,4.85515,10.63798,1209.06,0.14066,0.33696,0.449517,CC(C1=C2C=CC=C1)(C)CC2(CC3(C)C)C(C3=C4)=CC5=C4OC6=CC=CC=C6O5
13,2100,0,200,0,0,0,2300,39.22578,39.22578,39.22578,90,90,90,0.781993,4.34543,10.93526,1096.27,0.14018,0.33988,0.453834,CC(C1=C2C=CC=C1)(C)CC2(CC3(C)C)C(C3=C4)=CC5=C4OC6=CC=CC=C6O5
14,2100,0,200,0,0,0,2300,39.44922,39.44922,39.44922,90,90,90,0.76878,3.84555,9.81585,1195.69,0.1535,0.34282,0.459441,CC(C1=C2C=CC=C1)(C)CC2(CC3(C)C)C(C3=C4)=CC5=C4OC6=CC=CC=C6O5
15,2100,0,200,0,0,0,2300,39.21649,39.21649,39.21649,90,90,90,0.782549,3.89809,10.70658,907.677,0.13698,0.32392,0.441109,CC(C1=C2C=CC=C1)(C)CC2(CC3(C)C)C(C3=C4)=CC5=C4OC6=CC=CC=C6O5    
16,2700,0,400,0,200,0,3300,43.20881,43.20881,43.20881,90,90,90,0.877478,4.24329,7.89262,1022.14,0.13408,0.32146,0.453274,COC1=CC2=C(C=C1OC)C(C)(C)CC(CC3(C)C)2C(C3=C4)=CC5=C4OC6=C(F)C(C)=C(C)C(F)=C6O5
17,2700,0,400,0,200,0,3300,42.76795,42.76795,42.76795,90,90,90,0.904894,4.18506,8.96005,772.839,0.11748,0.2909,0.426993,COC1=CC2=C(C=C1OC)C(C)(C)CC(CC3(C)C)2C(C3=C4)=CC5=C4OC6=C(F)C(C)=C(C)C(F)=C6O5
18,2700,0,400,0,200,0,3300,42.97571,42.97571,42.97571,90,90,90,0.891834,3.65387,9.75503,0,0.11586,0.28594,0.435891,COC1=CC2=C(C=C1OC)C(C)(C)CC(CC3(C)C)2C(C3=C4)=CC5=C4OC6=C(F)C(C)=C(C)C(F)=C6O5
19,2700,0,400,0,200,0,3300,43.40995,43.40995,43.40995,90,90,90,0.865337,4.91921,9.3122,1160.71,0.14694,0.331,0.464585,COC1=CC2=C(C=C1OC)C(C)(C)CC(CC3(C)C)2C(C3=C4)=CC5=C4OC6=C(F)C(C)=C(C)C(F)=C6O5
20,2700,0,400,0,200,0,3300,42.39974,42.39974,42.39974,90,90,90,0.928675,3.75459,6.642,772.124,0.10276,0.26592,0.405672,COC1=CC2=C(C=C1OC)C(C)(C)CC(CC3(C)C)2C(C3=C4)=CC5=C4OC6=C(F)C(C)=C(C)C(F)=C6O5
21,2700,0,400,0,0,0,3100,42.21749,42.21749,42.21749,90,90,90,0.856902,3.80204,8.37149,903.872,0.12726,0.29186,0.429328,CC1=C(C)C=C2C(OC(C=C(C3(CC(C)(C)C4=C3C=C(OC)C(OC)=C4)CC5(C)C)C5=C6)=C6O2)=C1
22,2700,0,400,0,0,0,3100,41.85469,41.85469,41.85469,90,90,90,0.879379,3.38113,10.39036,0,0.1038,0.26126,0.399416,CC1=C(C)C=C2C(OC(C=C(C3(CC(C)(C)C4=C3C=C(OC)C(OC)=C4)CC5(C)C)C5=C6)=C6O2)=C1
23,2700,0,400,0,0,0,3100,42.77162,42.77162,42.77162,90,90,90,0.824027,5.00798,11.11035,1003.83,0.15058,0.3236,0.456428,CC1=C(C)C=C2C(OC(C=C(C3(CC(C)(C)C4=C3C=C(OC)C(OC)=C4)CC5(C)C)C5=C6)=C6O2)=C1
24,2700,0,400,0,0,0,3100,42.41949,42.41949,42.41949,90,90,90,0.844719,5.59578,12.03199,1030.34,0.14012,0.30984,0.43938,CC1=C(C)C=C2C(OC(C=C(C3(CC(C)(C)C4=C3C=C(OC)C(OC)=C4)CC5(C)C)C5=C6)=C6O2)=C1
25,2700,0,400,0,0,0,3100,42.1283,42.1283,42.1283,90,90,90,0.862356,4.45289,10.42237,847.558,0.12434,0.28556,0.424977,CC1=C(C)C=C2C(OC(C=C(C3(CC(C)(C)C4=C3C=C(OC)C(OC)=C4)CC5(C)C)C5=C6)=C6O2)=C1
26,2500,0,400,200,0,0,3100,40.0388,40.0388,40.0388,90,90,90,1.01486,3.63968,7.74672,0,0.0729,0.2084,0.355941,CC1=C(C)C(C#N)=C2C(OC(C=C(C3(CCC4=C3C=C(OC)C(OC)=C4)CC5)C5=C6)=C6O2)=C1C#N
27,2500,0,400,200,0,0,3100,40.46934,40.46934,40.46934,90,90,90,0.982816,3.49488,10.16128,0,0.09444,0.25032,0.391378,CC1=C(C)C(C#N)=C2C(OC(C=C(C3(CCC4=C3C=C(OC)C(OC)=C4)CC5)C5=C6)=C6O2)=C1C#N
28,2500,0,400,200,0,0,3100,40.38691,40.38691,40.38691,90,90,90,0.988846,3.99086,6.89299,372.731,0.08818,0.24288,0.392172,CC1=C(C)C(C#N)=C2C(OC(C=C(C3(CCC4=C3C=C(OC)C(OC)=C4)CC5)C5=C6)=C6O2)=C1C#N
29,2500,0,400,200,0,0,3100,40.0487,40.0487,40.0487,90,90,90,1.01411,3.08174,5.47716,0,0.07412,0.21138,0.362503,CC1=C(C)C(C#N)=C2C(OC(C=C(C3(CCC4=C3C=C(OC)C(OC)=C4)CC5)C5=C6)=C6O2)=C1C#N
30,2500,0,400,200,0,0,3100,40.30457,40.30457,40.30457,90,90,90,0.994919,3.79784,7.66549,400.95,0.08414,0.23538,0.377784,CC1=C(C)C(C#N)=C2C(OC(C=C(C3(CCC4=C3C=C(OC)C(OC)=C4)CC5)C5=C6)=C6O2)=C1C#N
31,2500,0,400,200,0,0,3100,42.52183,42.52183,42.52183,90,90,90,0.847256,5.31417,9.73557,1143.63,0.15154,0.33356,0.463223,CC1=C(C)C(C#N)=C2C(OC(C=C(C3(CCC4=C3C=C(OC)C(OC)=C4)CC5)C5=C6)=C6O2)=C1C#N
32,2500,0,400,200,0,0,3100,41.09537,41.09537,41.09537,90,90,90,0.938582,3.01392,7.9772,0,0.08076,0.2377,0.377133,CC1=C(C)C(C#N)=C2C(OC(C=C(C3(CCC4=C3C=C(OC)C(OC)=C4)CC5)C5=C6)=C6O2)=C1C#N
33,2500,0,400,200,0,0,3100,41.7574,41.7574,41.7574,90,90,90,0.894644,3.60449,11.28945,0,0.11968,0.28386,0.414467,CC1=C(C)C(C#N)=C2C(OC(C=C(C3(CCC4=C3C=C(OC)C(OC)=C4)CC5)C5=C6)=C6O2)=C1C#N
34,2500,0,400,200,0,0,3100,42.08582,42.08582,42.08582,90,90,90,0.873863,4.3096,9.47178,905.349,0.13214,0.296,0.432593,CC1=C(C)C(C#N)=C2C(OC(C=C(C3(CCC4=C3C=C(OC)C(OC)=C4)CC5)C5=C6)=C6O2)=C1C#N
35,2500,0,400,200,0,0,3100,41.73805,41.73805,41.73805,90,90,90,0.895889,3.55654,8.14953,0,0.10742,0.27962,0.417545,CC1=C(C)C(C#N)=C2C(OC(C=C(C3(CCC4=C3C=C(OC)C(OC)=C4)CC5)C5=C6)=C6O2)=C1C#N
36,3700,0,400,200,0,0,4300,47.19448,47.19448,47.19448,90,90,90,0.84738,4.66795,12.84852,1151.09,0.14816,0.30906,0.463782,N#CC1=C2C(C=C(OC(C3(CC(C)(C)C4=C3C=CC=C4)CC5(C)C)C5O6)C6=C2)=C(C#N)C(C1=C7)=CC8=C7OC9=CC=CC=C9O8
37,3700,0,400,200,0,0,4300,47.39593,47.39593,47.39593,90,90,90,0.83662,4.64705,10.98896,1131.21,0.16086,0.31412,0.461225,N#CC1=C2C(C=C(OC(C3(CC(C)(C)C4=C3C=CC=C4)CC5(C)C)C5O6)C6=C2)=C(C#N)C(C1=C7)=CC8=C7OC9=CC=CC=C9O8
38,3700,0,400,200,0,0,4300,46.22862,46.22862,46.22862,90,90,90,0.90161,3.78896,8.92634,812.625,0.10586,0.2543,0.412078,N#CC1=C2C(C=C(OC(C3(CC(C)(C)C4=C3C=CC=C4)CC5(C)C)C5O6)C6=C2)=C(C#N)C(C1=C7)=CC8=C7OC9=CC=CC=C9O8
39,3700,0,400,200,0,0,4300,46.27141,46.27141,46.27141,90,90,90,0.899111,3.94225,10.56267,725.105,0.11954,0.2661,0.411594,N#CC1=C2C(C=C(OC(C3(CC(C)(C)C4=C3C=CC=C4)CC5(C)C)C5O6)C6=C2)=C(C#N)C(C1=C7)=CC8=C7OC9=CC=CC=C9O8
40,3700,0,400,200,0,0,4300,46.51689,46.51689,46.51689,90,90,90,0.884952,3.62204,10.06574,0,0.12158,0.27376,0.427922,N#CC1=C2C(C=C(OC(C3(CC(C)(C)C4=C3C=CC=C4)CC5(C)C)C5O6)C6=C2)=C(C#N)C(C1=C7)=CC8=C7OC9=CC=CC=C9O8
41,4500,0,400,200,0,0,5100,49.87062,49.87062,49.87062,90,90,90,0.846796,4.49921,11.53366,1021.34,0.15042,0.30232,0.466591,N#CC1=C2C(C=C(OC(C=C(C3(CC(C)(C)C4=C3C=CC=C4)CC5(C)C)C5=C6)=C6O7)C7=C2)=C(C#N)C(C1=C8)=CC9=C8OC%10=CC%11=CC=CC=C%11C=C%10O9
42,4500,0,400,200,0,0,5100,48.3504,48.3504,48.3504,90,90,90,0.929208,3.65041,10.27672,0,0.09694,0.22568,0.385075,N#CC1=C2C(C=C(OC(C=C(C3(CC(C)(C)C4=C3C=CC=C4)CC5(C)C)C5=C6)=C6O7)C7=C2)=C(C#N)C(C1=C8)=CC9=C8OC%10=CC%11=CC=CC=C%11C=C%10O9
43,4500,0,400,200,0,0,5100,48.9311,48.9311,48.9311,90,90,90,0.896516,3.77615,8.73436,759.763,0.1119,0.25748,0.422882,N#CC1=C2C(C=C(OC(C=C(C3(CC(C)(C)C4=C3C=CC=C4)CC5(C)C)C5=C6)=C6O7)C7=C2)=C(C#N)C(C1=C8)=CC9=C8OC%10=CC%11=CC=CC=C%11C=C%10O9
44,4500,0,400,200,0,0,5100,49.35809,49.35809,49.35809,90,90,90,0.87345,4.06869,8.99976,846.858,0.12516,0.27022,0.444294,N#CC1=C2C(C=C(OC(C=C(C3(CC(C)(C)C4=C3C=CC=C4)CC5(C)C)C5=C6)=C6O7)C7=C2)=C(C#N)C(C1=C8)=CC9=C8OC%10=CC%11=CC=CC=C%11C=C%10O9
45,4500,0,400,200,0,0,5100,49.09355,49.09355,49.09355,90,90,90,0.887646,3.99913,10.64315,856.423,0.11722,0.26048,0.432717,N#CC1=C2C(C=C(OC(C=C(C3(CC(C)(C)C4=C3C=CC=C4)CC5(C)C)C5=C6)=C6O7)C7=C2)=C(C#N)C(C1=C8)=CC9=C8OC%10=CC%11=CC=CC=C%11C=C%10O9
46,4100,0,400,200,0,0,4700,50.45836,50.45836,50.45836,90,90,90,0.755449,4.92158,9.95978,1313.77,0.15478,0.31598,0.444379,CC1=C(C)C(C#N)=C2C(OC(C=C(C3(CC(C(C)(C)C)(C(C)(C)C)C4=C3C=C(OC)C(OC)=C4)CC5(C(C)(C)C)C(C)(C)C)C5=C6)=C6O2)=C1C#N
47,4100,0,400,200,0,0,4700,49.75919,49.75919,49.75919,90,90,90,0.787743,4.15082,9.83938,1069.55,0.13078,0.28752,0.410119,CC1=C(C)C(C#N)=C2C(OC(C=C(C3(CC(C(C)(C)C)(C(C)(C)C)C4=C3C=C(OC)C(OC)=C4)CC5(C(C)(C)C)C(C)(C)C)C5=C6)=C6O2)=C1C#N
48,4100,0,400,200,0,0,4700,50.84413,50.84413,50.84413,90,90,90,0.738384,5.87052,13.63448,1389.46,0.1727,0.33066,0.463095,CC1=C(C)C(C#N)=C2C(OC(C=C(C3(CC(C(C)(C)C)(C(C)(C)C)C4=C3C=C(OC)C(OC)=C4)CC5(C(C)(C)C)C(C)(C)C)C5=C6)=C6O2)=C1C#N
49,4100,0,400,200,0,0,4700,50.29829,50.29829,50.29829,90,90,90,0.762684,4.70454,10.34302,1232.75,0.14408,0.31036,0.441358,CC1=C(C)C(C#N)=C2C(OC(C=C(C3(CC(C(C)(C)C)(C(C)(C)C)C4=C3C=C(OC)C(OC)=C4)CC5(C(C)(C)C)C(C)(C)C)C5=C6)=C6O2)=C1C#N
50,4100,0,400,200,0,0,4700,51.00117,51.00117,51.00117,90,90,90,0.731584,5.21603,12.06743,1493.8,0.17538,0.34156,0.468369,CC1=C(C)C(C#N)=C2C(OC(C=C(C3(CC(C(C)(C)C)(C(C)(C)C)C4=C3C=C(OC)C(OC)=C4)CC5(C(C)(C)C)C(C)(C)C)C5=C6)=C6O2)=C1C#N
51,3700,0,400,200,0,400,4700,50.8669,50.8669,50.8669,90,90,90,0.838603,4.39079,10.88298,916.629,0.1219,0.26266,0.389093,CC1=C(C)C(C#N)=C(OC(C=C(C2(CC(S(C)(C)C)(S(C)(C)C)C3=C2C=C(OC)C(OC)=C3)CC4(S(C)(C)C)S(C)(C)C)C4=C5)=C5O6)C6=C1C#N
52,3700,0,400,200,0,400,4700,50.4563,50.4563,50.4563,90,90,90,0.859243,4.0701,10.79113,809.259,0.11176,0.2437,0.367194,CC1=C(C)C(C#N)=C(OC(C=C(C2(CC(S(C)(C)C)(S(C)(C)C)C3=C2C=C(OC)C(OC)=C3)CC4(S(C)(C)C)S(C)(C)C)C4=C5)=C5O6)C6=C1C#N
53,3700,0,400,200,0,400,4700,50.7384,50.7384,50.7384,90,90,90,0.844991,4.60705,8.91363,783.917,0.11778,0.25716,0.382648,CC1=C(C)C(C#N)=C(OC(C=C(C2(CC(S(C)(C)C)(S(C)(C)C)C3=C2C=C(OC)C(OC)=C3)CC4(S(C)(C)C)S(C)(C)C)C4=C5)=C5O6)C6=C1C#N
54,3700,0,400,200,0,400,4700,50.9797,50.9797,50.9797,90,90,90,0.833049,4.43441,10.08363,955.036,0.13026,0.26604,0.390581,CC1=C(C)C(C#N)=C(OC(C=C(C2(CC(S(C)(C)C)(S(C)(C)C)C3=C2C=C(OC)C(OC)=C3)CC4(S(C)(C)C)S(C)(C)C)C4=C5)=C5O6)C6=C1C#N
55,3700,0,400,200,0,400,4700,51.1363,51.1363,51.1363,90,90,90,0.825419,3.73734,9.95026,901.412,0.13472,0.27404,0.39759,CC1=C(C)C(C#N)=C(OC(C=C(C2(CC(S(C)(C)C)(S(C)(C)C)C3=C2C=C(OC)C(OC)=C3)CC4(S(C)(C)C)S(C)(C)C)C4=C5)=C5O6)C6=C1C#N
56,4011,0,764,0,0,382,5157,50.73021,50.73021,50.73021,90,90,90,0.924009,4.26021,10.01054,791.656,0.1215,0.25694,0.413165,CC(C1=C2C=CC=C1)(C)CC2(CC3(C)C)C(C3=C4)=CC5=C4S(C6=CC=CC=C6S5(=O)=O)(=O)=O
57,4011,0,764,0,0,382,5157,49.37818,49.37818,49.37818,90,90,90,0.975777,3.86672,6.31516,367.197,0.08574,0.2115,0.367988,CC(C1=C2C=CC=C1)(C)CC2(CC3(C)C)C(C3=C4)=CC5=C4S(C6=CC=CC=C6S5(=O)=O)(=O)=O
58,4011,0,764,0,0,382,5157,49.54437,49.54437,49.54437,90,90,90,0.986764,3.30563,8.33741,0,0.0781,0.19476,0.358422,CC(C1=C2C=CC=C1)(C)CC2(CC3(C)C)C(C3=C4)=CC5=C4S(C6=CC=CC=C6S5(=O)=O)(=O)=O
59,4011,0,764,0,0,382,5157,49.99734,49.99734,49.99734,90,90,90,0.970294,3.56634,7.65841,0,0.08704,0.21444,0.377996,CC(C1=C2C=CC=C1)(C)CC2(CC3(C)C)C(C3=C4)=CC5=C4S(C6=CC=CC=C6S5(=O)=O)(=O)=O
60,4011,0,764,0,0,382,5157,49.18114,49.18114,49.18114,90,90,90,0.982242,3.27271,8.69685,0,0.07828,0.19726,0.360117,CC(C1=C2C=CC=C1)(C)CC2(CC3(C)C)C(C3=C4)=CC5=C4S(C6=CC=CC=C6S5(=O)=O)(=O)=O
61,5017,0,1384,346,0,692,7439,54.70688,54.70688,54.70688,90,90,90,1.10992,4.11724,13.32177,391.756,0.09062,0.18252,0.339743,N#CC1=C2C(S(C(C=C(C3(CC(C)(C)C4=C3C=C(S(C)(=O)=O)C(S(C)(=O)=O)=C4)CC5(C)C)C5=C6)=C6S2(=O)=O)(=O)=O)=C(C#N)C(C)=C1C
62,5017,0,1384,346,0,692,7439,51.04085,51.04085,51.04085,90,90,90,1.12967,3.23783,8.62871,0,0.07408,0.16944,0.333924,N#CC1=C2C(S(C(C=C(C3(CC(C)(C)C4=C3C=C(S(C)(=O)=O)C(S(C)(=O)=O)=C4)CC5(C)C)C5=C6)=C6S2(=O)=O)(=O)=O)=C(C#N)C(C)=C1C
63,5017,0,1384,346,0,692,7439,52.94985,52.94985,52.94985,90,90,90,1.0826,3.89505,13.64632,487.67,0.107,0.20628,0.357179,N#CC1=C2C(S(C(C=C(C3(CC(C)(C)C4=C3C=C(S(C)(=O)=O)C(S(C)(=O)=O)=C4)CC5(C)C)C5=C6)=C6S2(=O)=O)(=O)=O)=C(C#N)C(C)=C1C
64,5017,0,1384,346,0,692,7439,54.93129,54.93129,54.93129,90,90,90,1.10271,4.84738,11.15029,416.448,0.09688,0.19208,0.344326,N#CC1=C2C(S(C(C=C(C3(CC(C)(C)C4=C3C=C(S(C)(=O)=O)C(S(C)(=O)=O)=C4)CC5(C)C)C5=C6)=C6S2(=O)=O)(=O)=O)=C(C#N)C(C)=C1C
65,5017,0,1384,346,0,692,7439,56.74551,56.74551,56.74551,90,90,90,1.14976,3.1077,10.16953,0,0.06518,0.13958,0.30356,N#CC1=C2C(S(C(C=C(C3(CC(C)(C)C4=C3C=C(S(C)(=O)=O)C(S(C)(=O)=O)=C4)CC5(C)C)C5=C6)=C6S2(=O)=O)(=O)=O)=C(C#N)C(C)=C1C
66,4011,0,0,0,0,382,4393,48.50536,48.50536,48.50536,90,90,90,0.879223,3.52041,9.33701,0,0.09466,0.22648,0.389838,CC1(C)CC2(CC(C)(C)C3=C2C=CC=C3)C(C1=C4)=CC5=C4SC6=CC=CC=C6S5
67,4011,0,0,0,0,382,4393,47.99918,47.99918,47.99918,90,90,90,0.883581,3.29135,10.04426,0,0.09338,0.22932,0.381647,CC1(C)CC2(CC(C)(C)C3=C2C=CC=C3)C(C1=C4)=CC5=C4SC6=CC=CC=C6S5
68,4011,0,0,0,0,382,4393,48.73352,48.73352,48.73352,90,90,90,0.862393,3.90742,10.66681,611.267,0.11434,0.25278,0.402621,CC1(C)CC2(CC(C)(C)C3=C2C=CC=C3)C(C1=C4)=CC5=C4SC6=CC=CC=C6S5
69,4011,0,0,0,0,382,4393,48.25738,48.25738,48.25738,90,90,90,0.897521,3.54098,8.21465,0,0.07746,0.19854,0.37129,CC1(C)CC2(CC(C)(C)C3=C2C=CC=C3)C(C1=C4)=CC5=C4SC6=CC=CC=C6S5
70,4011,0,0,0,0,382,4393,47.68693,47.68693,47.68693,90,90,90,0.896207,3.22789,7.24442,0,0.07818,0.20524,0.369003,CC1(C)CC2(CC(C)(C)C3=C2C=CC=C3)C(C1=C4)=CC5=C4SC6=CC=CC=C6S5
71,5017,0,0,346,0,692,6055,51.8433,51.8433,51.8433,90,90,90,1.04031,2.92075,7.06964,0,0.04686,0.12698,0.305031,N#CC1=C2C(SC(C=C(C3(CC(C)(C)C4=C3C=C(SC)C(SC)=C4)CC5(C)C)C5=C6)=C6S2)=C(C#N)C(C)=C1C
72,5017,0,0,346,0,692,6055,49.1439,49.1439,49.1439,90,90,90,1.00953,3.28726,7.44094,0,0.0646,0.17322,0.341976,N#CC1=C2C(SC(C=C(C3(CC(C)(C)C4=C3C=C(SC)C(SC)=C4)CC5(C)C)C5=C6)=C6S2)=C(C#N)C(C)=C1C
73,5017,0,0,346,0,692,6055,50.09863,50.09863,50.09863,90,90,90,1.01955,3.10681,7.64407,0,0.06414,0.16326,0.333318,N#CC1=C2C(SC(C=C(C3(CC(C)(C)C4=C3C=C(SC)C(SC)=C4)CC5(C)C)C5=C6)=C6S2)=C(C#N)C(C)=C1C 
74,5017,0,0,346,0,692,6055,52.5547,52.5547,52.5547,90,90,90,1.0044,3.78088,9.74787,372.227,0.07454,0.17408,0.345205,N#CC1=C2C(SC(C=C(C3(CC(C)(C)C4=C3C=C(SC)C(SC)=C4)CC5(C)C)C5=C6)=C6S2)=C(C#N)C(C)=C1C 
75,5017,0,0,346,0,692,6055,51.90128,51.90128,51.90128,90,90,90,1.00087,3.10934,10.07307,0,0.07398,0.17018,0.343823,N#CC1=C2C(SC(C=C(C3(CC(C)(C)C4=C3C=C(SC)C(SC)=C4)CC5(C)C)C5=C6)=C6S2)=C(C#N)C(C)=C1C